
FAST Summary File

Predictions were generated on 20-Sep-2016 at 06:57:21 using FAST (v8.09.00a-bjj, 30-Sep-2014), compiled for 32-bit systems using single precision
  compiled with
    NWTC Subroutine Library (v2.04.00a-bjj, 30-Sep-2014)
    ElastoDyn (v1.01.07a-bjj, 30-Sep-2014)
    AeroDyn (v14.03.00a-bjj, 30-Sep-2014)
    InflowWind (v2.00.01c-bjj, 30-Sep-2014)
    ServoDyn (v1.01.02a-bjj, 30-June-2014)
    HydroDyn (unknown version, unknown date) [not called]
    SubDyn (unknown version, unknown date) [not called]
    MAP (unknown version, unknown date) [not called]
    FEAMooring (unknown version, unknown date) [not called]
    IceFloe (unknown version, unknown date) [not called]
    IceDyn (unknown version, unknown date) [not called]


Modeling a land-based turbine
Description from the FAST input file: 
  WindPACT 5.0 MW (J. Rinker, 15-Aug-16) based on WindPACT Excel input files

Interpolation order for input/output time histories: 2 (quadratic)
Number of correction iterations:  0


   Requested Time Steps  
  -------------------------------------------------
  Component          Time Step (s)    Subcycles (-)
  -----------------  ---------------  -------------
  FAST (glue code)    5.000E-03
  ElastoDyn           5.000E-03              1
  AeroDyn             5.000E-03              1
  ServoDyn            5.000E-03              1
  FAST output files   5.000E-02             10^-1


   Requested Channels in FAST Output File(s)  
  --------------------------------------------
  Number  Name        Units       Generated by
  ------  ----------  ----------  ------------
       1  Time        (s)         FAST
       2  WindVxi     (m/s)       InflowWind
       3  WindVyi     (m/s)       InflowWind
       4  WindVzi     (m/s)       InflowWind
       5  OoPDefl1    (m)         ElastoDyn
       6  IPDefl1     (m)         ElastoDyn
       7  TipDzb1     (m)         ElastoDyn
       8  TwrClrnc1   (m)         ElastoDyn
       9  OoPDefl2    (m)         ElastoDyn
      10  IPDefl2     (m)         ElastoDyn
      11  TipDzb2     (m)         ElastoDyn
      12  TwrClrnc2   (m)         ElastoDyn
      13  OoPDefl3    (m)         ElastoDyn
      14  IPDefl3     (m)         ElastoDyn
      15  TipDzb3     (m)         ElastoDyn
      16  TwrClrnc3   (m)         ElastoDyn
      17  BldPitch1   (deg)       ElastoDyn
      18  BldPitch2   (deg)       ElastoDyn
      19  BldPitch3   (deg)       ElastoDyn
      20  Azimuth     (deg)       ElastoDyn
      21  RotSpeed    (rpm)       ElastoDyn
      22  RotAccel    (deg/s^2)   ElastoDyn
      23  GenSpeed    (rpm)       ElastoDyn
      24  GenAccel    (deg/s^2)   ElastoDyn
      25  TTDspFA     (m)         ElastoDyn
      26  TTDspSS     (m)         ElastoDyn
      27  TTDspAx     (m)         ElastoDyn
      28  YawBrTAxp   (m/s^2)     ElastoDyn
      29  YawBrTAyp   (m/s^2)     ElastoDyn
      30  YawBrTAzp   (m/s^2)     ElastoDyn
      31  RootFzb1    (kN)        ElastoDyn
      32  RootMIP1    (kN·m)      ElastoDyn
      33  RootMOoP1   (kN·m)      ElastoDyn
      34  RootMzb1    (kN·m)      ElastoDyn
      35  RootMEdg1   (kN·m)      ElastoDyn
      36  RootMFlp1   (kN·m)      ElastoDyn
      37  RootFzb2    (kN)        ElastoDyn
      38  RootMIP2    (kN·m)      ElastoDyn
      39  RootMOoP2   (kN·m)      ElastoDyn
      40  RootMzb2    (kN·m)      ElastoDyn
      41  RootMEdg2   (kN·m)      ElastoDyn
      42  RootMFlp2   (kN·m)      ElastoDyn
      43  RootFzb3    (kN)        ElastoDyn
      44  RootMIP3    (kN·m)      ElastoDyn
      45  RootMOoP3   (kN·m)      ElastoDyn
      46  RootMzb3    (kN·m)      ElastoDyn
      47  RootMEdg3   (kN·m)      ElastoDyn
      48  RootMFlp3   (kN·m)      ElastoDyn
      49  RotThrust   (kN)        ElastoDyn
      50  LSSGagFya   (kN)        ElastoDyn
      51  LSSGagFza   (kN)        ElastoDyn
      52  LSSGagFys   (kN)        ElastoDyn
      53  LSSGagFzs   (kN)        ElastoDyn
      54  RotTorq     (kN·m)      ElastoDyn
      55  LSShftPwr   (kW)        ElastoDyn
      56  HSShftTq    (kN·m)      ElastoDyn
      57  HSShftPwr   (kW)        ElastoDyn
      58  YawBrFzp    (kN)        ElastoDyn
      59  YawBrMzp    (kN·m)      ElastoDyn
      60  TwrBsFxt    (kN)        ElastoDyn
      61  TwrBsFyt    (kN)        ElastoDyn
      62  TwrBsFzt    (kN)        ElastoDyn
      63  TwrBsMxt    (kN·m)      ElastoDyn
      64  TwrBsMyt    (kN·m)      ElastoDyn
      65  TwrBsMzt    (kN·m)      ElastoDyn
      66  GenPwr      (kW)        ServoDyn
